Title: * .step'ed log file data
Date: N/A
Plotname: unknown
Flags: real forward
No. Variables: 13
No. Points: 100
Offset:   0.0000000000000000e+000
Command: Linear Technology Corporation LTspice IV
Variables:
	0	run	step
	1	rt1	unknown
	2	rt2	unknown
	3	rt3	unknown
	4	rt4	unknown
	5	rn1	unknown
	6	rn2	unknown
	7	rn3	unknown
	8	rn4	unknown
	9	rp1	unknown
	10	rp2	unknown
	11	rp3	unknown
	12	rp4	unknown
Values:
0		1.000000000000000e+000
	6.982240000000000e+003
	9.900420000000000e+003
	1.249480000000000e+004
	1.571160000000000e+004
	5.675220000000000e+005
	6.012840000000000e+003
	6.437490000000000e+002
	1.098990000000000e+002
	7.830820000000000e+002
	9.985680000000000e+002
	1.328640000000000e+003
	1.575340000000000e+003
1		2.000000000000000e+000
	7.217670000000000e+003
	9.970230000000000e+003
	1.241500000000000e+004
	1.539910000000000e+004
	5.776150000000000e+005
	5.963530000000000e+003
	6.304060000000000e+002
	1.065450000000000e+002
	7.858160000000000e+002
	1.001520000000000e+003
	1.331120000000000e+003
	1.577470000000000e+003
2		3.000000000000000e+000
	7.054040000000000e+003
	1.004230000000000e+004
	1.269920000000000e+004
	1.600090000000000e+004
	5.575200000000000e+005
	5.953560000000000e+003
	6.398750000000000e+002
	1.095730000000000e+002
	7.801369999999999e+002
	9.990870000000000e+002
	1.324000000000000e+003
	1.566940000000000e+003
3		4.000000000000000e+000
	6.780970000000000e+003
	9.929629999999999e+003
	1.273170000000000e+004
	1.626240000000000e+004
	5.443020000000000e+005
	5.956860000000000e+003
	6.480000000000000e+002
	1.120280000000000e+002
	7.852900000000000e+002
	1.002300000000000e+003
	1.329920000000000e+003
	1.574840000000000e+003
4		5.000000000000000e+000
	6.880000000000000e+003
	9.901950000000001e+003
	1.258990000000000e+004
	1.594890000000000e+004
	5.726640000000000e+005
	6.014860000000000e+003
	6.412220000000000e+002
	1.090990000000000e+002
	7.836580000000000e+002
	1.000160000000000e+003
	1.328650000000000e+003
	1.574200000000000e+003
5		6.000000000000000e+000
	7.061030000000000e+003
	9.933420000000000e+003
	1.248640000000000e+004
	1.563770000000000e+004
	5.664580000000000e+005
	5.949450000000000e+003
	6.342390000000000e+002
	1.079100000000000e+002
	7.823130000000000e+002
	9.997760000000000e+002
	1.326860000000000e+003
	1.571380000000000e+003
6		7.000000000000000e+000
	7.227620000000000e+003
	1.005680000000000e+004
	1.257040000000000e+004
	1.565280000000000e+004
	5.805140000000000e+005
	6.047790000000000e+003
	6.421540000000000e+002
	1.089120000000000e+002
	7.824240000000000e+002
	1.000100000000000e+003
	1.326850000000000e+003
	1.571130000000000e+003
7		8.000000000000000e+000
	7.322230000000000e+003
	1.009140000000000e+004
	1.255060000000000e+004
	1.554780000000000e+004
	5.567600000000000e+005
	5.998060000000000e+003
	6.474540000000000e+002
	1.112510000000000e+002
	7.818180000000000e+002
	1.000190000000000e+003
	1.325910000000000e+003
	1.569430000000000e+003
8		9.000000000000000e+000
	6.903350000000000e+003
	1.007260000000000e+004
	1.289270000000000e+004
	1.644030000000000e+004
	5.928490000000000e+005
	6.062320000000000e+003
	6.378310000000000e+002
	1.073980000000000e+002
	7.860340000000000e+002
	1.001320000000000e+003
	1.331550000000000e+003
	1.578360000000000e+003
9		1.000000000000000e+001
	6.971940000000000e+003
	1.002250000000000e+004
	1.273570000000000e+004
	1.612440000000000e+004
	5.529310000000000e+005
	6.043430000000000e+003
	6.569970000000000e+002
	1.135260000000000e+002
	7.811920000000000e+002
	9.989100000000000e+002
	1.325660000000000e+003
	1.569940000000000e+003
10		1.100000000000000e+001
	6.771110000000000e+003
	9.975340000000000e+003
	1.282730000000000e+004
	1.643060000000000e+004
	5.780490000000000e+005
	5.943690000000000e+003
	6.270490000000000e+002
	1.058090000000000e+002
	7.820990000000001e+002
	1.000840000000000e+003
	1.325980000000000e+003
	1.569080000000000e+003
11		1.200000000000000e+001
	6.858380000000000e+003
	9.955350000000000e+003
	1.271070000000000e+004
	1.616840000000000e+004
	5.800640000000000e+005
	6.043180000000000e+003
	6.416690000000000e+002
	1.088300000000000e+002
	7.844520000000000e+002
	1.000420000000000e+003
	1.329680000000000e+003
	1.575800000000000e+003
12		1.300000000000000e+001
	6.849240000000000e+003
	9.997160000000000e+003
	1.279830000000000e+004
	1.632260000000000e+004
	5.845030000000000e+005
	5.997620000000000e+003
	6.320940000000001e+002
	1.065750000000000e+002
	7.842210000000000e+002
	1.001150000000000e+003
	1.328950000000000e+003
	1.574000000000000e+003
13		1.400000000000000e+001
	6.829990000000000e+003
	1.004910000000000e+004
	1.291420000000000e+004
	1.653190000000000e+004
	5.742580000000000e+005
	6.030860000000000e+003
	6.428890000000000e+002
	1.093770000000000e+002
	7.831660000000001e+002
	1.000470000000000e+003
	1.327750000000000e+003
	1.572420000000000e+003
14		1.500000000000000e+001
	6.949000000000000e+003
	1.001470000000000e+004
	1.274150000000000e+004
	1.615160000000000e+004
	5.783180000000000e+005
	5.993670000000000e+003
	6.347840000000000e+002
	1.074440000000000e+002
	7.803290000000000e+002
	9.983720000000000e+002
	1.324670000000000e+003
	1.568620000000000e+003
15		1.600000000000000e+001
	7.294680000000000e+003
	1.000360000000000e+004
	1.240890000000000e+004
	1.533040000000000e+004
	5.696630000000000e+005
	5.962900000000000e+003
	6.346160000000000e+002
	1.078320000000000e+002
	7.837200000000000e+002
	1.001190000000000e+003
	1.328190000000000e+003
	1.572660000000000e+003
16		1.700000000000000e+001
	6.770520000000000e+003
	9.998549999999999e+003
	1.287190000000000e+004
	1.650600000000000e+004
	5.808880000000000e+005
	5.960340000000000e+003
	6.281570000000000e+002
	1.059100000000000e+002
	7.841700000000000e+002
	1.000940000000000e+003
	1.328990000000000e+003
	1.574210000000000e+003
17		1.800000000000000e+001
	7.192560000000000e+003
	9.928490000000000e+003
	1.235840000000000e+004
	1.532300000000000e+004
	5.501360000000000e+005
	5.993780000000000e+003
	6.505810000000000e+002
	1.122790000000000e+002
	7.832540000000000e+002
	1.000910000000000e+003
	1.327650000000000e+003
	1.571920000000000e+003
18		1.900000000000000e+001
	7.186240000000000e+003
	1.009350000000000e+004
	1.267730000000000e+004
	1.586380000000000e+004
	5.741930000000000e+005
	6.041260000000000e+003
	6.445790000000000e+002
	1.097430000000000e+002
	7.831910000000000e+002
	9.983800000000000e+002
	1.328900000000000e+003
	1.575930000000000e+003
19		2.000000000000000e+001
	6.793680000000000e+003
	9.938440000000001e+003
	1.273690000000000e+004
	1.626160000000000e+004
	5.635790000000000e+005
	5.961270000000000e+003
	6.377140000000001e+002
	1.088000000000000e+002
	7.846010000000000e+002
	1.001490000000000e+003
	1.329330000000000e+003
	1.574400000000000e+003
20		2.100000000000000e+001
	6.996130000000000e+003
	1.004660000000000e+004
	1.275960000000000e+004
	1.614630000000000e+004
	5.794340000000000e+005
	6.024530000000000e+003
	6.390590000000000e+002
	1.083030000000000e+002
	7.824440000000000e+002
	9.989730000000000e+002
	1.327480000000000e+003
	1.573040000000000e+003
21		2.200000000000000e+001
	7.034060000000000e+003
	1.004460000000000e+004
	1.272160000000000e+004
	1.605360000000000e+004
	5.533000000000000e+005
	6.042780000000000e+003
	6.566760000000000e+002
	1.134370000000000e+002
	7.808170000000000e+002
	9.982390000000000e+002
	1.325460000000000e+003
	1.570090000000000e+003
22		2.300000000000000e+001
	7.110860000000000e+003
	1.000360000000000e+004
	1.257460000000000e+004
	1.574830000000000e+004
	5.891350000000000e+005
	6.056610000000000e+003
	6.389060000000000e+002
	1.078030000000000e+002
	7.811130000000001e+002
	9.996609999999999e+002
	1.325140000000000e+003
	1.568500000000000e+003
23		2.400000000000000e+001
	6.937190000000000e+003
	1.001010000000000e+004
	1.274350000000000e+004
	1.616390000000000e+004
	5.641800000000000e+005
	6.044280000000000e+003
	6.506609999999999e+002
	1.115610000000000e+002
	7.825130000000000e+002
	9.998740000000000e+002
	1.327100000000000e+003
	1.571730000000000e+003
24		2.500000000000000e+001
	6.882640000000000e+003
	9.991389999999999e+003
	1.275720000000000e+004
	1.622820000000000e+004
	5.726740000000000e+005
	6.031350000000000e+003
	6.438410000000000e+002
	1.096610000000000e+002
	7.846160000000000e+002
	1.002270000000000e+003
	1.328940000000000e+003
	1.573160000000000e+003
25		2.600000000000000e+001
	7.120140000000000e+003
	9.939370000000001e+003
	1.244440000000000e+004
	1.552230000000000e+004
	5.826560000000000e+005
	6.002770000000000e+003
	6.338900000000000e+002
	1.070450000000000e+002
	7.843680000000001e+002
	1.001600000000000e+003
	1.328930000000000e+003
	1.573630000000000e+003
26		2.700000000000000e+001
	7.225850000000000e+003
	9.905660000000000e+003
	1.228510000000000e+004
	1.517450000000000e+004
	5.559640000000000e+005
	6.006370000000000e+003
	6.492490000000000e+002
	1.116820000000000e+002
	7.815750000000001e+002
	1.000350000000000e+003
	1.325460000000000e+003
	1.568550000000000e+003
27		2.800000000000000e+001
	7.136720000000000e+003
	1.006880000000000e+004
	1.267500000000000e+004
	1.589750000000000e+004
	5.567240000000000e+005
	6.043680000000000e+003
	6.548340000000000e+002
	1.128540000000000e+002
	7.826260000000000e+002
	1.000750000000000e+003
	1.326810000000000e+003
	1.570580000000000e+003
28		2.900000000000000e+001
	7.097670000000000e+003
	9.922160000000000e+003
	1.243190000000000e+004
	1.551850000000000e+004
	5.586350000000000e+005
	5.976930000000000e+003
	6.429930000000001e+002
	1.101890000000000e+002
	7.842380000000001e+002
	9.991350000000000e+002
	1.330050000000000e+003
	1.577370000000000e+003
29		3.000000000000000e+001
	7.096410000000000e+003
	9.928219999999999e+003
	1.244460000000000e+004
	1.554070000000000e+004
	5.781460000000000e+005
	6.014690000000000e+003
	6.382000000000001e+002
	1.081820000000000e+002
	7.857030000000000e+002
	1.001580000000000e+003
	1.330920000000000e+003
	1.577090000000000e+003
30		3.100000000000000e+001
	6.783380000000000e+003
	9.950719999999999e+003
	1.276950000000000e+004
	1.632410000000000e+004
	5.847140000000000e+005
	6.039430000000000e+003
	6.385640000000000e+002
	1.079420000000000e+002
	7.788940000000000e+002
	9.976690000000000e+002
	1.322920000000000e+003
	1.566100000000000e+003
31		3.200000000000000e+001
	6.761510000000000e+003
	9.942290000000001e+003
	1.277320000000000e+004
	1.634700000000000e+004
	5.612100000000000e+005
	5.956250000000000e+003
	6.382340000000000e+002
	1.090310000000000e+002
	7.813240000000000e+002
	1.000260000000000e+003
	1.325140000000000e+003
	1.568050000000000e+003
32		3.300000000000000e+001
	7.157380000000000e+003
	1.005060000000000e+004
	1.262190000000000e+004
	1.579260000000000e+004
	5.552100000000000e+005
	5.995010000000000e+003
	6.478500000000000e+002
	1.114180000000000e+002
	7.815380000000000e+002
	1.000210000000000e+003
	1.325480000000000e+003
	1.568680000000000e+003
33		3.400000000000000e+001
	6.926140000000000e+003
	1.003940000000000e+004
	1.280920000000000e+004
	1.628260000000000e+004
	5.694850000000000e+005
	6.011980000000000e+003
	6.425210000000000e+002
	1.095360000000000e+002
	7.817220000000000e+002
	9.997100000000000e+002
	1.326020000000000e+003
	1.569980000000000e+003
34		3.500000000000000e+001
	6.843500000000000e+003
	1.002590000000000e+004
	1.285800000000000e+004
	1.642740000000000e+004
	5.863110000000000e+005
	6.026170000000000e+003
	6.356220000000000e+002
	1.072390000000000e+002
	7.852410000000000e+002
	1.000030000000000e+003
	1.331060000000000e+003
	1.578470000000000e+003
35		3.600000000000000e+001
	6.881740000000000e+003
	9.938160000000000e+003
	1.265700000000000e+004
	1.606050000000000e+004
	5.864500000000000e+005
	5.997560000000000e+003
	6.310530000000000e+002
	1.062620000000000e+002
	7.838270000000000e+002
	9.984980000000001e+002
	1.329780000000000e+003
	1.577370000000000e+003
36		3.700000000000000e+001
	7.030150000000000e+003
	9.919670000000000e+003
	1.248810000000000e+004
	1.566410000000000e+004
	5.548690000000000e+005
	6.054400000000000e+003
	6.576450000000000e+002
	1.135640000000000e+002
	7.809860000000000e+002
	9.981040000000000e+002
	1.325780000000000e+003
	1.570740000000000e+003
37		3.800000000000000e+001
	6.953330000000000e+003
	1.007910000000000e+004
	1.286000000000000e+004
	1.634740000000000e+004
	5.549230000000000e+005
	5.991890000000000e+003
	6.475119999999999e+002
	1.113600000000000e+002
	7.830710000000000e+002
	9.987280000000000e+002
	1.328540000000000e+003
	1.575050000000000e+003
38		3.900000000000000e+001
	7.093500000000000e+003
	1.002580000000000e+004
	1.263240000000000e+004
	1.585860000000000e+004
	5.736970000000000e+005
	6.014390000000000e+003
	6.405800000000000e+002
	1.089100000000000e+002
	7.828170000000000e+002
	9.997800000000000e+002
	1.327600000000000e+003
	1.572670000000000e+003
39		4.000000000000000e+001
	7.252710000000000e+003
	1.007110000000000e+004
	1.257490000000000e+004
	1.564130000000000e+004
	5.632630000000000e+005
	6.010520000000000e+003
	6.457640000000000e+002
	1.105500000000000e+002
	7.847580000000000e+002
	1.000590000000000e+003
	1.330040000000000e+003
	1.576290000000000e+003
40		4.100000000000000e+001
	7.105390000000000e+003
	9.937030000000001e+003
	1.245320000000000e+004
	1.554840000000000e+004
	5.525650000000000e+005
	5.971730000000000e+003
	6.456160000000000e+002
	1.110720000000000e+002
	7.852310000000000e+002
	1.000270000000000e+003
	1.330920000000000e+003
	1.578040000000000e+003
41		4.200000000000000e+001
	7.143330000000000e+003
	1.002110000000000e+004
	1.257860000000000e+004
	1.573040000000000e+004
	5.512610000000000e+005
	6.001930000000000e+003
	6.512470000000000e+002
	1.123640000000000e+002
	7.829490000000000e+002
	1.000400000000000e+003
	1.327470000000000e+003
	1.571970000000000e+003
42		4.300000000000000e+001
	7.113910000000000e+003
	1.004830000000000e+004
	1.265670000000000e+004
	1.588410000000000e+004
	5.572870000000000e+005
	6.039170000000000e+003
	6.537790000000000e+002
	1.125950000000000e+002
	7.846060000000000e+002
	1.000570000000000e+003
	1.329830000000000e+003
	1.575940000000000e+003
43		4.400000000000000e+001
	7.234470000000000e+003
	1.001540000000000e+004
	1.248550000000000e+004
	1.550490000000000e+004
	5.524290000000000e+005
	6.029930000000000e+003
	6.551010000000000e+002
	1.131400000000000e+002
	7.856620000000000e+002
	1.001940000000000e+003
	1.330670000000000e+003
	1.576390000000000e+003
44		4.500000000000000e+001
	7.309060000000000e+003
	1.003370000000000e+004
	1.245310000000000e+004
	1.539390000000000e+004
	5.526970000000000e+005
	5.979290000000000e+003
	6.467590000000000e+002
	1.113130000000000e+002
	7.826150000000000e+002
	9.991390000000000e+002
	1.327640000000000e+003
	1.573210000000000e+003
45		4.600000000000000e+001
	7.167670000000000e+003
	9.921879999999999e+003
	1.236830000000000e+004
	1.535850000000000e+004
	5.568050000000000e+005
	5.961180000000000e+003
	6.415010000000000e+002
	1.099610000000000e+002
	7.859410000000000e+002
	1.001650000000000e+003
	1.331230000000000e+003
	1.577570000000000e+003
46		4.700000000000000e+001
	6.721930000000000e+003
	9.916040000000001e+003
	1.275910000000000e+004
	1.635320000000000e+004
	5.658470000000000e+005
	6.008040000000000e+003
	6.439180000000000e+002
	1.100200000000000e+002
	7.852690000000000e+002
	1.000670000000000e+003
	1.330760000000000e+003
	1.577480000000000e+003
47		4.800000000000000e+001
	6.891210000000000e+003
	9.981969999999999e+003
	1.273160000000000e+004
	1.617870000000000e+004
	5.566330000000000e+005
	5.960910000000000e+003
	6.415550000000000e+002
	1.099810000000000e+002
	7.830359999999999e+002
	9.998450000000000e+002
	1.327890000000000e+003
	1.573120000000000e+003
48		4.900000000000000e+001
	6.945190000000000e+003
	1.004780000000000e+004
	1.280780000000000e+004
	1.626590000000000e+004
	5.804180000000000e+005
	6.047470000000000e+003
	6.421560000000000e+002
	1.089170000000000e+002
	7.867630000000000e+002
	1.001540000000000e+003
	1.332510000000000e+003
	1.579870000000000e+003
49		5.000000000000000e+001
	7.237280000000000e+003
	9.960180000000000e+003
	1.237820000000000e+004
	1.532240000000000e+004
	5.715280000000000e+005
	6.036850000000000e+003
	6.453510000000000e+002
	1.100420000000000e+002
	7.795150000000000e+002
	9.982580000000000e+002
	1.323520000000000e+003
	1.566720000000000e+003
50		5.100000000000000e+001
	7.289100000000000e+003
	1.002210000000000e+004
	1.244900000000000e+004
	1.540220000000000e+004
	5.622170000000000e+005
	6.021090000000000e+003
	6.480510000000000e+002
	1.110980000000000e+002
	7.827970000000000e+002
	9.980010000000000e+002
	1.328520000000000e+003
	1.575550000000000e+003
51		5.200000000000000e+001
	6.964220000000000e+003
	9.921129999999999e+003
	1.255030000000000e+004
	1.581860000000000e+004
	5.741030000000000e+005
	6.053060000000000e+003
	6.465080000000000e+002
	1.101620000000000e+002
	7.809750000000000e+002
	9.987270000000000e+002
	1.325440000000000e+003
	1.569690000000000e+003
52		5.300000000000000e+001
	6.822420000000000e+003
	1.003270000000000e+004
	1.289000000000000e+004
	1.649710000000000e+004
	5.787720000000000e+005
	6.002270000000000e+003
	6.358980000000000e+002
	1.076600000000000e+002
	7.826310000000000e+002
	9.999720000000000e+002
	1.327230000000000e+003
	1.571870000000000e+003
53		5.400000000000000e+001
	6.952050000000000e+003
	1.000200000000000e+004
	1.271480000000000e+004
	1.610440000000000e+004
	5.644910000000000e+005
	6.015380000000000e+003
	6.458530000000000e+002
	1.105070000000000e+002
	7.842340000000000e+002
	1.000890000000000e+003
	1.329110000000000e+003
	1.574460000000000e+003
54		5.500000000000000e+001
	7.063170000000000e+003
	9.901350000000000e+003
	1.242360000000000e+004
	1.553060000000000e+004
	5.711270000000000e+005
	6.046240000000000e+003
	6.470730000000000e+002
	1.104330000000000e+002
	7.818270000000000e+002
	9.981330000000000e+002
	1.327010000000000e+003
	1.572850000000000e+003
55		5.600000000000000e+001
	7.049830000000000e+003
	1.004960000000000e+004
	1.271700000000000e+004
	1.603400000000000e+004
	5.624250000000000e+005
	6.008960000000000e+003
	6.459880000000001e+002
	1.106410000000000e+002
	7.838720000000000e+002
	9.994440000000000e+002
	1.329340000000000e+003
	1.575920000000000e+003
56		5.700000000000000e+001
	7.155010000000000e+003
	1.009130000000000e+004
	1.270130000000000e+004
	1.592780000000000e+004
	5.725840000000000e+005
	5.958420000000000e+003
	6.323140000000000e+002
	1.071960000000000e+002
	7.811010000000000e+002
	9.984900000000000e+002
	1.325750000000000e+003
	1.570400000000000e+003
57		5.800000000000000e+001
	7.143750000000000e+003
	1.009050000000000e+004
	1.270990000000000e+004
	1.595090000000000e+004
	5.676650000000000e+005
	5.949320000000000e+003
	6.335550000000000e+002
	1.077030000000000e+002
	7.801960000000000e+002
	9.977920000000000e+002
	1.324780000000000e+003
	1.569240000000000e+003
58		5.900000000000000e+001
	7.158750000000000e+003
	9.926500000000000e+003
	1.238510000000000e+004
	1.539350000000000e+004
	5.837840000000000e+005
	6.029270000000000e+003
	6.374610000000000e+002
	1.077510000000000e+002
	7.853580000000000e+002
	1.001720000000000e+003
	1.330340000000000e+003
	1.575980000000000e+003
59		6.000000000000000e+001
	6.740910000000000e+003
	9.903110000000001e+003
	1.271750000000000e+004
	1.626880000000000e+004
	5.476680000000000e+005
	5.968690000000000e+003
	6.479540000000000e+002
	1.118380000000000e+002
	7.847010000000000e+002
	1.000980000000000e+003
	1.329750000000000e+003
	1.575500000000000e+003
60		6.100000000000000e+001
	7.039670000000000e+003
	9.933950000000001e+003
	1.250660000000000e+004
	1.568800000000000e+004
	5.720850000000000e+005
	5.986740000000000e+003
	6.370740000000000e+002
	1.082390000000000e+002
	7.816460000000000e+002
	9.992610000000000e+002
	1.326150000000000e+003
	1.570520000000000e+003
61		6.200000000000000e+001
	7.232780000000000e+003
	1.006070000000000e+004
	1.257300000000000e+004
	1.565320000000000e+004
	5.865370000000000e+005
	6.038460000000000e+003
	6.374360000000000e+002
	1.076140000000000e+002
	7.838080000000000e+002
	1.000130000000000e+003
	1.328880000000000e+003
	1.574620000000000e+003
62		6.300000000000000e+001
	7.039640000000000e+003
	9.929129999999999e+003
	1.249750000000000e+004
	1.567270000000000e+004
	5.770310000000000e+005
	5.959020000000000e+003
	6.300080000000000e+002
	1.064880000000000e+002
	7.816520000000000e+002
	9.995490000000000e+002
	1.326000000000000e+003
	1.570060000000000e+003
63		6.400000000000000e+001
	6.915770000000000e+003
	9.913400000000000e+003
	1.257930000000000e+004
	1.590410000000000e+004
	5.573460000000000e+005
	6.008380000000000e+003
	6.487810000000000e+002
	1.115080000000000e+002
	7.826800000000000e+002
	1.000350000000000e+003
	1.327100000000000e+003
	1.571370000000000e+003
64		6.500000000000000e+001
	6.772430000000000e+003
	9.962440000000001e+003
	1.280170000000000e+004
	1.638640000000000e+004
	5.761050000000000e+005
	5.976750000000000e+003
	6.333060000000000e+002
	1.072360000000000e+002
	7.830670000000000e+002
	1.001450000000000e+003
	1.327080000000000e+003
	1.570550000000000e+003
65		6.600000000000000e+001
	7.236360000000000e+003
	1.007920000000000e+004
	1.260500000000000e+004
	1.570430000000000e+004
	5.797000000000000e+005
	5.985980000000000e+003
	6.328280000000000e+002
	1.069610000000000e+002
	7.848630000000001e+002
	1.001150000000000e+003
	1.329900000000000e+003
	1.575640000000000e+003
66		6.700000000000000e+001
	7.181940000000000e+003
	9.945870000000001e+003
	1.240100000000000e+004
	1.540260000000000e+004
	5.869190000000000e+005
	6.007760000000000e+003
	6.324060000000000e+002
	1.065270000000000e+002
	7.808070000000000e+002
	9.987380000000001e+002
	1.325180000000000e+003
	1.569240000000000e+003
67		6.800000000000000e+001
	6.721150000000000e+003
	9.910930000000000e+003
	1.275010000000000e+004
	1.633870000000000e+004
	5.535510000000000e+005
	5.953950000000000e+003
	6.421870000000000e+002
	1.102780000000000e+002
	7.829930000000001e+002
	1.000120000000000e+003
	1.327680000000000e+003
	1.572550000000000e+003
68		6.900000000000000e+001
	6.920480000000000e+003
	1.007850000000000e+004
	1.288840000000000e+004
	1.642010000000000e+004
	5.560710000000000e+005
	6.054420000000000e+003
	6.569490000000000e+002
	1.133480000000000e+002
	7.798670000000000e+002
	9.983490000000001e+002
	1.324000000000000e+003
	1.567470000000000e+003
69		7.000000000000000e+001
	6.707600000000000e+003
	9.909590000000000e+003
	1.275980000000000e+004
	1.636520000000000e+004
	5.635950000000000e+005
	5.990450000000000e+003
	6.423660000000000e+002
	1.098000000000000e+002
	7.842290000000000e+002
	9.992400000000000e+002
	1.329980000000000e+003
	1.577170000000000e+003
70		7.100000000000000e+001
	7.270630000000000e+003
	1.008940000000000e+004
	1.259340000000000e+004
	1.565890000000000e+004
	5.655700000000000e+005
	6.025860000000000e+003
	6.469230000000000e+002
	1.106820000000000e+002
	7.848560000000000e+002
	1.000170000000000e+003
	1.330410000000000e+003
	1.577250000000000e+003
71		7.200000000000000e+001
	6.705900000000000e+003
	9.952000000000000e+003
	1.284180000000000e+004
	1.650440000000000e+004
	5.562720000000000e+005
	5.990450000000000e+003
	6.465080000000000e+002
	1.110720000000000e+002
	7.853080000000000e+002
	1.000130000000000e+003
	1.331100000000000e+003
	1.578470000000000e+003
72		7.300000000000000e+001
	6.891050000000000e+003
	1.001730000000000e+004
	1.279880000000000e+004
	1.629170000000000e+004
	5.818960000000000e+005
	5.994920000000000e+003
	6.330590000000000e+002
	1.069050000000000e+002
	7.860220000000001e+002
	1.000870000000000e+003
	1.331770000000000e+003
	1.579070000000000e+003
73		7.400000000000000e+001
	7.193040000000000e+003
	9.901600000000000e+003
	1.230690000000000e+004
	1.523610000000000e+004
	5.545100000000000e+005
	6.011810000000000e+003
	6.509630000000000e+002
	1.121300000000000e+002
	7.849320000000000e+002
	1.000480000000000e+003
	1.330360000000000e+003
	1.576920000000000e+003
74		7.500000000000000e+001
	6.912520000000000e+003
	9.944639999999999e+003
	1.264150000000000e+004
	1.601110000000000e+004
	5.687700000000000e+005
	5.952490000000000e+003
	6.334520000000000e+002
	1.076260000000000e+002
	7.804690000000001e+002
	9.976820000000000e+002
	1.325240000000000e+003
	1.570120000000000e+003
75		7.600000000000000e+001
	6.820460000000000e+003
	1.007120000000000e+004
	1.296480000000000e+004
	1.662420000000000e+004
	5.813960000000000e+005
	6.025650000000000e+003
	6.381740000000000e+002
	1.080190000000000e+002
	7.853890000000000e+002
	1.001470000000000e+003
	1.330510000000000e+003
	1.576470000000000e+003
76		7.700000000000000e+001
	7.125460000000000e+003
	1.000620000000000e+004
	1.256640000000000e+004
	1.572350000000000e+004
	5.808270000000000e+005
	6.030020000000000e+003
	6.391720000000000e+002
	1.082590000000000e+002
	7.823190000000000e+002
	9.983310000000000e+002
	1.327640000000000e+003
	1.573780000000000e+003
77		7.800000000000000e+001
	7.156270000000000e+003
	9.906379999999999e+003
	1.234920000000000e+004
	1.533500000000000e+004
	5.646330000000000e+005
	5.952860000000000e+003
	6.357890000000000e+002
	1.083330000000000e+002
	7.847890000000000e+002
	1.000680000000000e+003
	1.330040000000000e+003
	1.576220000000000e+003
78		7.900000000000000e+001
	6.829580000000000e+003
	1.008980000000000e+004
	1.299180000000000e+004
	1.666270000000000e+004
	5.775130000000000e+005
	6.060490000000000e+003
	6.458090000000000e+002
	1.098420000000000e+002
	7.805680000000000e+002
	9.989510000000000e+002
	1.324710000000000e+003
	1.568270000000000e+003
79		8.000000000000000e+001
	7.224110000000000e+003
	9.958620000000001e+003
	1.238710000000000e+004
	1.534740000000000e+004
	5.510520000000000e+005
	5.968820000000000e+003
	6.460160000000000e+002
	1.112380000000000e+002
	7.834140000000000e+002
	9.993850000000000e+002
	1.328700000000000e+003
	1.574850000000000e+003
80		8.100000000000000e+001
	6.992440000000000e+003
	9.948280000000001e+003
	1.257640000000000e+004
	1.584110000000000e+004
	5.696360000000000e+005
	6.050970000000000e+003
	6.486600000000000e+002
	1.108500000000000e+002
	7.833940000000000e+002
	1.001890000000000e+003
	1.327330000000000e+003
	1.570650000000000e+003
81		8.200000000000000e+001
	7.115110000000000e+003
	9.916190000000001e+003
	1.240490000000000e+004
	1.545980000000000e+004
	5.850700000000000e+005
	6.035780000000000e+003
	6.377980000000000e+002
	1.077620000000000e+002
	7.837050000000000e+002
	9.984670000000000e+002
	1.329610000000000e+003
	1.577100000000000e+003
82		8.300000000000000e+001
	6.952020000000000e+003
	9.942299999999999e+003
	1.260150000000000e+004
	1.591390000000000e+004
	5.593080000000000e+005
	5.956280000000000e+003
	6.393040000000000e+002
	1.093580000000000e+002
	7.819230000000000e+002
	9.976790000000000e+002
	1.327400000000000e+003
	1.573840000000000e+003
83		8.400000000000000e+001
	7.266110000000000e+003
	9.962400000000000e+003
	1.235640000000000e+004
	1.526400000000000e+004
	5.541870000000000e+005
	5.965300000000000e+003
	6.436520000000000e+002
	1.105620000000000e+002
	7.799070000000000e+002
	9.978420000000000e+002
	1.324330000000000e+003
	1.568410000000000e+003
84		8.500000000000000e+001
	7.035380000000000e+003
	9.930870000000001e+003
	1.250460000000000e+004
	1.568790000000000e+004
	5.747480000000000e+005
	5.966110000000000e+003
	6.323580000000000e+002
	1.071000000000000e+002
	7.869560000000000e+002
	1.001810000000000e+003
	1.332650000000000e+003
	1.579900000000000e+003
85		8.600000000000000e+001
	7.125630000000000e+003
	1.002930000000000e+004
	1.261010000000000e+004
	1.579670000000000e+004
	5.785630000000000e+005
	6.053230000000000e+003
	6.440800000000000e+002
	1.094200000000000e+002
	7.849540000000000e+002
	1.001930000000000e+003
	1.329620000000000e+003
	1.574590000000000e+003
86		8.700000000000000e+001
	7.043930000000000e+003
	9.930320000000000e+003
	1.249590000000000e+004
	1.566670000000000e+004
	5.739510000000000e+005
	6.055830000000000e+003
	6.470330000000000e+002
	1.102820000000000e+002
	7.831860000000000e+002
	1.000330000000000e+003
	1.327860000000000e+003
	1.572700000000000e+003
87		8.800000000000000e+001
	7.048410000000000e+003
	1.001590000000000e+004
	1.265430000000000e+004
	1.592950000000000e+004
	5.480320000000000e+005
	5.984620000000000e+003
	6.503220000000000e+002
	1.123340000000000e+002
	7.815760000000000e+002
	9.988590000000000e+002
	1.326260000000000e+003
	1.571010000000000e+003
88		8.900000000000000e+001
	6.886760000000000e+003
	1.005920000000000e+004
	1.288220000000000e+004
	1.643530000000000e+004
	5.519660000000000e+005
	6.013490000000000e+003
	6.527090000000000e+002
	1.126440000000000e+002
	7.806600000000000e+002
	9.979910000000000e+002
	1.325360000000000e+003
	1.570090000000000e+003
89		9.000000000000000e+001
	6.782250000000000e+003
	9.939700000000001e+003
	1.274960000000000e+004
	1.629160000000000e+004
	5.762290000000000e+005
	6.015170000000000e+003
	6.393190000000000e+002
	1.085150000000000e+002
	7.836850000000000e+002
	1.000680000000000e+003
	1.328410000000000e+003
	1.573390000000000e+003
90		9.100000000000000e+001
	7.112160000000000e+003
	9.988430000000000e+003
	1.254470000000000e+004
	1.569700000000000e+004
	5.568500000000000e+005
	6.013680000000000e+003
	6.499190000000000e+002
	1.117810000000000e+002
	7.841700000000000e+002
	9.995210000000000e+002
	1.329740000000000e+003
	1.576560000000000e+003
91		9.200000000000000e+001
	7.293110000000000e+003
	1.009010000000000e+004
	1.257440000000000e+004
	1.560990000000000e+004
	5.791970000000000e+005
	5.964880000000000e+003
	6.297710000000000e+002
	1.063340000000000e+002
	7.848110000000000e+002
	9.994990000000000e+002
	1.330700000000000e+003
	1.578240000000000e+003
92		9.300000000000000e+001
	6.994710000000000e+003
	1.001510000000000e+004
	1.270110000000000e+004
	1.604900000000000e+004
	5.540590000000000e+005
	5.948540000000000e+003
	6.410290000000000e+002
	1.100000000000000e+002
	7.847160000000000e+002
	1.000600000000000e+003
	1.329970000000000e+003
	1.576170000000000e+003
93		9.400000000000000e+001
	6.931560000000000e+003
	9.952209999999999e+003
	1.263880000000000e+004
	1.599200000000000e+004
	5.855430000000000e+005
	6.030090000000000e+003
	6.366490000000000e+002
	1.074940000000000e+002
	7.860020000000000e+002
	1.001860000000000e+003
	1.331210000000000e+003